 vasp.5.3.5 31Mar14 (build Sep  9 2022 00:36:04) complex                         
 executed on     NSC-GFORTRAN-B01 date 2024.04.01  13:26:03
 running on   20 total cores
 distrk:  each k-point on   20 cores,    1 groups
 distr:  one band on NCORES_PER_BAND=  10 cores,    2 groups


--------------------------------------------------------------------------------------------------------


 INCAR:
 POTCAR:    PAW_PBE Li 17Jan2003                  
 POTCAR:   PAW_PBE Ni 06Sep2000                   
 POTCAR:   PAW_PBE O 08Apr2002                    

 ----------------------------------------------------------------------------- 
|                                                                             |
|           W    W    AA    RRRRR   N    N  II  N    N   GGGG   !!!           |
|           W    W   A  A   R    R  NN   N  II  NN   N  G    G  !!!           |
|           W    W  A    A  R    R  N N  N  II  N N  N  G       !!!           |
|           W WW W  AAAAAA  RRRRR   N  N N  II  N  N N  G  GGG   !            |
|           WW  WW  A    A  R   R   N   NN  II  N   NN  G    G                |
|           W    W  A    A  R    R  N    N  II  N    N   GGGG   !!!           |
|                                                                             |
|      For optimal performance we recommend to set                            |
|        NCORE= 4 - approx SQRT( number of cores)                             |
|      NCORE specifies how many cores store one orbital (NPAR=cpu/NCORE).     |
|      This setting can  greatly improve the performance of VASP for DFT.     |
|      The default, NPAR=number of cores might be grossly inefficient         |
|      on modern multi-core architectures or massively parallel machines.     |
|      Do your own testing !!!!                                               |
|      Unfortunately you need to use the default for GW and RPA calculations. |
|      (for HF NCORE is supported but not extensively tested yet)             |
|                                                                             |
 ----------------------------------------------------------------------------- 

 POTCAR:    PAW_PBE Li 17Jan2003                  
   VRHFIN =Li: s1p0                                                             
   LEXCH  = PE                                                                  
   EATOM  =     5.3001 eV,     .3895 Ry                                         
                                                                                
   TITEL  = PAW_PBE Li 17Jan2003                                                
   LULTRA =        F    use ultrasoft PP ?                                      
   IUNSCR =        1    unscreen: 0-lin 1-nonlin 2-no                           
   RPACOR =    1.500    partial core radius                                     
   POMASS =    7.010; ZVAL   =    1.000    mass and valenz                      
   RCORE  =    2.050    outmost cutoff radius                                   
   RWIGS  =    2.600; RWIGS  =    1.376    wigner-seitz radius (au A)           
   ENMAX  =  140.000; ENMIN  =  100.000 eV                                      
   ICORE  =        2    local potential                                         
   LCOR   =        T    correct aug charges                                     
   LPAW   =        T    paw PP                                                  
   EAUG   =  331.638                                                            
   DEXC   =    -.010                                                            
   RMAX   =    4.263    core radius for proj-oper                               
   RAUG   =    1.300    factor for augmentation sphere                          
   RDEP   =    2.094    radius for radial grids                                 
   QCUT   =   -2.932; QGAM   =    5.865    optimization parameters              
                                                                                
   Description                                                                  
     l     E      TYP  RCUT    TYP  RCUT                                        
     0   .000     23  2.050                                                     
     0  2.000     23  2.050                                                     
     1   .000     23  2.050                                                     
     2   .000     23  2.050                                                     
  local pseudopotential read in
  partial core-charges read in
  atomic valenz-charges read in
  non local Contribution for L=           0  read in
    real space projection operators read in
  non local Contribution for L=           0  read in
    real space projection operators read in
  non local Contribution for L=           1  read in
    real space projection operators read in
    PAW grid and wavefunctions read in

   number of l-projection  operators is LMAX  =           3
   number of lm-projection operators is LMMAX =           5

 POTCAR:   PAW_PBE Ni 06Sep2000                   
   VRHFIN =Ni:                                                                  
   LEXCH  = PE                                                                  
   EATOM  =  1077.9025 eV,   79.2236 Ry                                         
                                                                                
   TITEL  = PAW_PBE Ni 06Sep2000                                                
   LULTRA =        F    use ultrasoft PP ?                                      
   IUNSCR =        1    unscreen: 0-lin 1-nonlin 2-no                           
   RPACOR =    2.000    partial core radius                                     
   POMASS =   58.690; ZVAL   =   10.000    mass and valenz                      
   RCORE  =    2.300    outmost cutoff radius                                   
   RWIGS  =    2.430; RWIGS  =    1.286    wigner-seitz radius (au A)           
   ENMAX  =  269.533; ENMIN  =  202.150 eV                                      
   RCLOC  =    1.681    cutoff for local pot                                    
   LCOR   =        T    correct aug charges                                     
   LPAW   =        T    paw PP                                                  
   EAUG   =  544.565                                                            
   DEXC   =    -.009                                                            
   RMAX   =    2.808    core radius for proj-oper                               
   RAUG   =    1.300    factor for augmentation sphere                          
   RDEP   =    2.390    radius for radial grids                                 
   QCUT   =   -4.451; QGAM   =    8.902    optimization parameters              
                                                                                
   Description                                                                  
     l     E      TYP  RCUT    TYP  RCUT                                        
     2   .000     23  2.300                                                     
     2   .000     23  2.300                                                     
     0   .000     23  2.300                                                     
     0   .000     23  2.300                                                     
     1  -.200     23  2.300                                                     
     1   .000     23  2.300                                                     
     3   .000      7   .000                                                     
  local pseudopotential read in
  partial core-charges read in
  atomic valenz-charges read in
  non local Contribution for L=           2  read in
    real space projection operators read in
  non local Contribution for L=           2  read in
    real space projection operators read in
  non local Contribution for L=           0  read in
    real space projection operators read in
  non local Contribution for L=           0  read in
    real space projection operators read in
  non local Contribution for L=           1  read in
    real space projection operators read in
  non local Contribution for L=           1  read in
    real space projection operators read in
    PAW grid and wavefunctions read in

   number of l-projection  operators is LMAX  =           6
   number of lm-projection operators is LMMAX =          18

 POTCAR:   PAW_PBE O 08Apr2002                    
   VRHFIN =O: s2p4                                                              
   LEXCH  = PE                                                                  
   EATOM  =   432.3788 eV,   31.7789 Ry                                         
                                                                                
   TITEL  = PAW_PBE O 08Apr2002                                                 
   LULTRA =        F    use ultrasoft PP ?                                      
   IUNSCR =        0    unscreen: 0-lin 1-nonlin 2-no                           
   RPACOR =     .000    partial core radius                                     
   POMASS =   16.000; ZVAL   =    6.000    mass and valenz                      
   RCORE  =    1.520    outmost cutoff radius                                   
   RWIGS  =    1.550; RWIGS  =     .820    wigner-seitz radius (au A)           
   ENMAX  =  400.000; ENMIN  =  300.000 eV                                      
   ICORE  =        2    local potential                                         
   LCOR   =        T    correct aug charges                                     
   LPAW   =        T    paw PP                                                  
   EAUG   =  605.392                                                            
   DEXC   =     .000                                                            
   RMAX   =    2.264    core radius for proj-oper                               
   RAUG   =    1.300    factor for augmentation sphere                          
   RDEP   =    1.550    radius for radial grids                                 
   QCUT   =   -5.520; QGAM   =   11.041    optimization parameters              
                                                                                
   Description                                                                  
     l     E      TYP  RCUT    TYP  RCUT                                        
     0   .000     23  1.200                                                     
     0  -.700     23  1.200                                                     
     1   .000     23  1.520                                                     
     1   .600     23  1.520                                                     
     2   .000      7  1.500                                                     
  local pseudopotential read in
  atomic valenz-charges read in
  non local Contribution for L=           0  read in
    real space projection operators read in
  non local Contribution for L=           0  read in
    real space projection operators read in
  non local Contribution for L=           1  read in
    real space projection operators read in
  non local Contribution for L=           1  read in
    real space projection operators read in
    PAW grid and wavefunctions read in

   number of l-projection  operators is LMAX  =           4
   number of lm-projection operators is LMMAX =           8

 Optimization of the real space projectors (new method)

 maximal supplied QI-value         = 18.33
 optimisation between [QCUT,QGAM] = [ 10.08, 20.35] = [ 28.46,115.93] Ry 
 Optimized for a Real-space Cutoff    1.12 Angstroem

   l    n(q)    QCUT    max X(q) W(low)/X(q) W(high)/X(q)  e(spline) 
   0      7    10.082    30.666    0.64E-04    0.37E-04    0.13E-07
   0      7    10.082    39.284    0.51E-03    0.55E-03    0.65E-07
   1      6    10.082     4.214    0.30E-03    0.90E-03    0.46E-07
 Optimization of the real space projectors (new method)

 maximal supplied QI-value         = 16.25
 optimisation between [QCUT,QGAM] = [ 10.24, 20.48] = [ 29.35,117.42] Ry 
 Optimized for a Real-space Cutoff    1.34 Angstroem

   l    n(q)    QCUT    max X(q) W(low)/X(q) W(high)/X(q)  e(spline) 
   2      7    10.239     4.811    0.68E-04    0.17E-03    0.31E-07
   2      7    10.239    15.146    0.71E-03    0.18E-02    0.80E-07
   0      8    10.239    14.357    0.23E-04    0.48E-05    0.78E-08
   0      8    10.239    43.282    0.35E-03    0.13E-03    0.88E-07
   1      8    10.239     5.514    0.10E-03    0.13E-03    0.18E-07
   1      8    10.239     7.697    0.19E-03    0.56E-03    0.14E-06
 Optimization of the real space projectors (new method)

 maximal supplied QI-value         = 24.76
 optimisation between [QCUT,QGAM] = [ 10.15, 20.30] = [ 28.85,115.39] Ry 
 Optimized for a Real-space Cutoff    1.16 Angstroem

   l    n(q)    QCUT    max X(q) W(low)/X(q) W(high)/X(q)  e(spline) 
   0      7    10.150     4.192    0.12E-03    0.65E-04    0.50E-07
   0      7    10.150     8.473    0.79E-03    0.94E-03    0.13E-06
   1      6    10.150     2.474    0.39E-03    0.17E-03    0.21E-07
   1      6    10.150     3.912    0.17E-02    0.87E-03    0.10E-06
  PAW_PBE Li 17Jan2003                  :
 energy of atom  1       EATOM=   -5.3001
 kinetic energy error for atom=    0.0000 (will be added to EATOM!!)
 PAW_PBE Ni 06Sep2000                   :
 energy of atom  2       EATOM=-1077.9025
 kinetic energy error for atom=    0.0101 (will be added to EATOM!!)
 PAW_PBE O 08Apr2002                    :
 energy of atom  3       EATOM= -432.3788
 kinetic energy error for atom=    0.1156 (will be added to EATOM!!)


 POSCAR: Li2 Ni2 O4                              
  positions in direct lattice
  velocities in cartesian coordinates
 exchange correlation table for  LEXCH =        8
   RHO(1)=    0.500       N(1)  =     2000
   RHO(2)=  100.500       N(2)  =     4000



--------------------------------------------------------------------------------------------------------


 ion  position               nearest neighbor table
   1  0.750  0.370  0.000-   9 2.03  13 2.03  10 2.08  14 2.08  15 2.18  11 2.18   3 2.85   3 2.85
                             5 2.89   5 2.89   2 2.89   7 2.90   7 2.90   8 2.91   8 2.91   4 2.91
   2  0.750  0.874  0.000-  16 2.01  12 2.01  14 2.17  10 2.17   9 2.24  13 2.24   4 2.85   4 2.85
                             3 2.88   3 2.88   6 2.89   6 2.89   1 2.89   7 2.89   7 2.89   8 2.91
   3  0.250  0.126  0.000-   9 2.01  13 2.01  11 2.17  15 2.17  12 2.24  16 2.24   1 2.85   1 2.85
                             2 2.88   2 2.88   7 2.89   7 2.89   4 2.89   6 2.89   6 2.89   5 2.91
   4  0.250  0.630  0.000-  12 2.03  16 2.03  15 2.08  11 2.08  14 2.18  10 2.18   2 2.85   2 2.85
                             8 2.89   8 2.89   3 2.89   6 2.90   6 2.90   5 2.91   5 2.91   1 2.91
   5  0.250  0.379  0.500-  13 1.89   9 1.89  15 1.89  11 1.89  14 1.92  10 1.92   8 2.85   8 2.85
                             1 2.89   1 2.89   7 2.90   7 2.90   4 2.91   4 2.91   3 2.91   3 2.91
   6  0.250  0.879  0.500-  13 2.06   9 2.06  16 2.07  12 2.07  14 2.08  10 2.08   7 2.85   7 2.85
                             2 2.89   2 2.89   3 2.89   3 2.89   4 2.90   4 2.90   8 2.90   8 2.90
   7  0.750  0.121  0.500-  12 2.06  16 2.06  13 2.07   9 2.07  15 2.08  11 2.08   6 2.85   6 2.85
                             3 2.89   3 2.89   2 2.89   2 2.89   1 2.90   1 2.90   5 2.90   5 2.90
   8  0.750  0.621  0.500-  16 1.89  12 1.89  10 1.89  14 1.89  11 1.92  15 1.92   5 2.85   5 2.85
                             4 2.89   4 2.89   6 2.90   6 2.90   1 2.91   1 2.91   2 2.91   2 2.91
   9  0.024  0.148  0.266-   5 1.89   3 2.01   1 2.03   6 2.06   7 2.07   2 2.24
  10  0.998  0.610  0.282-   8 1.89   5 1.92   6 2.08   1 2.08   2 2.17   4 2.18
  11  0.498  0.390  0.282-   5 1.89   8 1.92   7 2.08   4 2.08   3 2.17   1 2.18
  12  0.524  0.852  0.266-   8 1.89   2 2.01   4 2.03   7 2.06   6 2.07   3 2.24
  13  0.476  0.148  0.734-   5 1.89   3 2.01   1 2.03   6 2.06   7 2.07   2 2.24
  14  0.502  0.610  0.718-   8 1.89   5 1.92   6 2.08   1 2.08   2 2.17   4 2.18
  15  0.002  0.390  0.718-   5 1.89   8 1.92   7 2.08   4 2.08   3 2.17   1 2.18
  16  0.976  0.852  0.734-   8 1.89   2 2.01   4 2.03   7 2.06   6 2.07   3 2.24


IMPORTANT INFORMATION: All symmetrisations will be switched off!
NOSYMM: (Re-)initialisation of all symmetry stuff for point group C_1.



 KPOINTS: Gamma-point only                        

Automatic generation of k-mesh.
Space group operators:
 irot       det(A)        alpha          n_x          n_y          n_z        tau_x        tau_y        tau_z
    1     1.000000     0.000000     1.000000     0.000000     0.000000     0.000000     0.000000     0.000000
 
 Subroutine IBZKPT returns following result:
 ===========================================
 
 Found     16 irreducible k-points:
 
 Following reciprocal coordinates:
            Coordinates               Weight
  0.125000  0.250000  0.125000      2.000000
  0.375000  0.250000  0.125000      2.000000
 -0.375000  0.250000  0.125000      2.000000
 -0.125000  0.250000  0.125000      2.000000
  0.125000 -0.250000  0.125000      2.000000
  0.375000 -0.250000  0.125000      2.000000
 -0.375000 -0.250000  0.125000      2.000000
 -0.125000 -0.250000  0.125000      2.000000
  0.125000  0.250000  0.375000      2.000000
  0.375000  0.250000  0.375000      2.000000
 -0.375000  0.250000  0.375000      2.000000
 -0.125000  0.250000  0.375000      2.000000
  0.125000 -0.250000  0.375000      2.000000
  0.375000 -0.250000  0.375000      2.000000
 -0.375000 -0.250000  0.375000      2.000000
 -0.125000 -0.250000  0.375000      2.000000
 
 Following cartesian coordinates:
            Coordinates               Weight
  0.025609  0.042873  0.034880      2.000000
  0.076250  0.042873  0.051875      2.000000
 -0.075673  0.042873  0.000889      2.000000
 -0.025032  0.042873  0.017885      2.000000
  0.025609 -0.042873  0.034880      2.000000
  0.076250 -0.042873  0.051875      2.000000
 -0.075673 -0.042873  0.000889      2.000000
 -0.025032 -0.042873  0.017884      2.000000
  0.026186  0.042873  0.087644      2.000000
  0.076827  0.042873  0.104640      2.000000
 -0.075096  0.042873  0.053653      2.000000
 -0.024455  0.042873  0.070649      2.000000
  0.026186 -0.042872  0.087644      2.000000
  0.076828 -0.042872  0.104639      2.000000
 -0.075096 -0.042872  0.053653      2.000000
 -0.024455 -0.042872  0.070648      2.000000
 


--------------------------------------------------------------------------------------------------------




 Dimension of arrays:
   k-points           NKPTS =     16   k-points in BZ     NKDIM =     16   number of bands    NBANDS=    200
   number of dos      NEDOS =   1000   number of ions     NIONS =     16
   non local maximal  LDIM  =      6   non local SUM 2l+1 LMDIM =     18
   total plane-waves  NPLWV = ******
   max r-space proj   IRMAX = 127361   max aug-charges    IRDMAX= 409313
   dimension x,y,z NGX =   120 NGY =  120 NGZ =  120
   dimension x,y,z NGXF=   240 NGYF=  240 NGZF=  240
   support grid    NGXF=   240 NGYF=  240 NGZF=  240
   ions per type =               4   4   8
 NGX,Y,Z   is equivalent  to a cutoff of  40.26, 34.21, 39.77 a.u.
 NGXF,Y,Z  is equivalent  to a cutoff of  80.52, 68.42, 79.54 a.u.


 I would recommend the setting:
   dimension x,y,z NGX =    24 NGY =   29 NGZ =   25
 SYSTEM =  Na -> Ag substituted dehydrated zeolit  
 POSCAR =  Li2 Ni2 O4                              

 Startparameter for this run:
   NWRITE =      2    write-flag & timer
   PREC   = med       normal or accurate (medium, high low for compatibility)
   ISTART =      1    job   : 0-new  1-cont  2-samecut
   ICHARG =     11    charge: 1-file 2-atom 10-const
   ISPIN  =      2    spin polarized calculation?
   LNONCOLLINEAR =      F non collinear calculations
   LSORBIT =      F    spin-orbit coupling
   INIWAV =      1    electr: 0-lowe 1-rand  2-diag
   LASPH  =      F    aspherical Exc in radial PAW
   METAGGA=      F    non-selfconsistent MetaGGA calc.

 Electronic Relaxation 1
   ENCUT  =  400.0 eV  29.40 Ry    5.42 a.u.   8.08  9.51  8.18*2*pi/ulx,y,z
   ENINI  =  400.0     initial cutoff
   ENAUG  =  605.4 eV  augmentation charge cutoff
   NELM   =     60;   NELMIN=  2; NELMDL=  0     # of ELM steps 
   EDIFF  = 0.1E-04   stopping-criterion for ELM
   LREAL  =      T    real-space projection
   NLSPLINE    = F    spline interpolate recip. space projectors
   LCOMPAT=      F    compatible to vasp.4.4
   GGA_COMPAT  = T    GGA compatible to vasp.4.4-vasp.4.6
   LMAXPAW     = -100 max onsite density
   LMAXMIX     =    2 max onsite mixed and CHGCAR
   VOSKOWN=      0    Vosko Wilk Nusair interpolation
   ROPT   =   -0.00200  -0.00200  -0.00200
 Ionic relaxation
   EDIFFG = -.1E-02   stopping-criterion for IOM
   NSW    =      0    number of steps for IOM
   NBLOCK =      1;   KBLOCK =      1    inner block; outer block 
   IBRION =     -1    ionic relax: 0-MD 1-quasi-New 2-CG
   NFREE  =      1    steps in history (QN), initial steepest desc. (CG)
   ISIF   =      0    stress and relaxation
   IWAVPR =     10    prediction:  0-non 1-charg 2-wave 3-comb
   ISYM   =      0    0-nonsym 1-usesym 2-fastsym
   LCORR  =      T    Harris-Foulkes like correction to forces

   POTIM  = 0.1000    time-step for ionic-motion
   TEIN   =    0.0    initial temperature
   TEBEG  =    0.0;   TEEND  =   0.0 temperature during run
   SMASS  =  -3.00    Nose mass-parameter (am)
   estimated Nose-frequenzy (Omega)   =  0.10E-29 period in steps =****** mass=  -0.561E-27a.u.
   SCALEE = 1.0000    scale energy and forces
   NPACO  =    256;   APACO  = 16.0  distance and # of slots for P.C.
   PSTRESS=    0.0 pullay stress

  Mass of Ions in am
   POMASS =   7.01 58.69 16.00
  Ionic Valenz
   ZVAL   =   1.00 10.00  6.00
  Atomic Wigner-Seitz radii
   RWIGS  =  -1.00 -1.00 -1.00
  virtual crystal weights 
   VCA    =   1.00  1.00  1.00
   NELECT =      92.0000    total number of electrons
   NUPDOWN=      -1.0000    fix difference up-down

 DOS related values:
   EMIN   = -20.00;   EMAX   = 50.00  energy-range for DOS
   EFERMI =   0.00
   ISMEAR =     0;   SIGMA  =   0.10  broadening in eV -4-tet -1-fermi 0-gaus

 Electronic relaxation 2 (details)
   IALGO  =     68    algorithm
   LDIAG  =      T    sub-space diagonalisation (order eigenvalues)
   LSUBROT=      F    optimize rotation matrix (better conditioning)
   TURBO    =      0    0=normal 1=particle mesh
   IRESTART =      0    0=no restart 2=restart with 2 vectors
   NREBOOT  =      0    no. of reboots
   NMIN     =      0    reboot dimension
   EREF     =   0.00    reference energy to select bands
   IMIX   =      4    mixing-type and parameters
     AMIX     =   0.40;   BMIX     =  1.00
     AMIX_MAG =   1.60;   BMIX_MAG =  1.00
     AMIN     =   0.10
     WC   =   100.;   INIMIX=   1;  MIXPRE=   1;  MAXMIX= -45

 Intra band minimization:
   WEIMIN = 0.0000     energy-eigenvalue tresh-hold
   EBREAK =  0.13E-07  absolut break condition
   DEPER  =   0.30     relativ break condition  

   TIME   =   0.40     timestep for ELM

  volume/ion in A,a.u.               =       8.56        57.74
  Fermi-wavevector in a.u.,A,eV,Ry     =   1.433968  2.709808 27.977193  2.056266
  Thomas-Fermi vector in A             =   2.553428

 Write flags
   LWAVE  =      F    write WAVECAR
   LCHARG =      F    write CHGCAR
   LVTOT  =      F    write LOCPOT, total local potential
   LVHAR  =      F    write LOCPOT, Hartree potential only
   LELF   =      F    write electronic localiz. function (ELF)
   LORBIT =     11    0 simple, 1 ext, 2 COOP (PROOUT)


 Dipole corrections
   LMONO  =      F    monopole corrections only (constant potential shift)
   LDIPOL =      F    correct potential (dipole corrections)
   IDIPOL =      0    1-x, 2-y, 3-z, 4-all directions 
   EPSILON=  1.0000000 bulk dielectric constant

 Exchange correlation treatment:
   GGA     =    --    GGA type
   LEXCH   =     8    internal setting for exchange type
   VOSKOWN=      0    Vosko Wilk Nusair interpolation
   LHFCALC =     F    Hartree Fock is set to
   LHFONE  =     F    Hartree Fock one center treatment
   AEXX    =    0.0000 exact exchange contribution

 Linear response parameters
   LEPSILON=     F    determine dielectric tensor
   LRPA    =     F    only Hartree local field effects (RPA)
   LNABLA  =     F    use nabla operator in PAW spheres
   LVEL    =     F    velocity operator in full k-point grid
   LINTERFAST=   F  fast interpolation
   KINTER  =     0    interpolate to denser k-point grid
   CSHIFT  =0.1000    complex shift for real part using Kramers Kronig
   OMEGAMAX=  -1.0    maximum frequency
   DEG_THRESHOLD= 0.2000000E-02 threshold for treating states as degnerate
   RTIME   =    0.100 relaxation time in fs

 Orbital magnetization related:
   ORBITALMAG=     F  switch on orbital magnetization
   LCHIMAG   =     F  perturbation theory with respect to B field
   DQ        =  0.001000  dq finite difference perturbation B field



--------------------------------------------------------------------------------------------------------


 Static calculation
 charge density and potential remain constant during run
 spin polarized calculation
 RMM-DIIS sequential band-by-band and
  variant of blocked Davidson during initial phase
 perform sub-space diagonalisation
    before iterative eigenvector-optimisation
 no mixing
 using additional bands          154
 real space projection scheme for non local part
 use partial core corrections
 calculate Harris-corrections to forces   (improved forces if not selfconsistent)
 use gradient corrections 
 WARNING: stress and forces are not correct
  (second derivative of E(xc) not defined)
 use of overlap-Matrix (Vanderbilt PP)
 Gauss-broadening in eV      SIGMA  =   0.10


--------------------------------------------------------------------------------------------------------


  energy-cutoff  :      400.00
  volume of cell :      136.90
      direct lattice vectors                 reciprocal lattice vectors
     4.954896765  0.000006145 -0.054209063     0.202564305  0.000000100  0.067981628
     0.000007066  5.831208532 -0.000029637    -0.000000203  0.171491037  0.000000877
    -1.595976453 -0.000026217  4.755518090     0.002309069  0.000001070  0.211056966

  length of vectors
     4.955193293  5.831208532  5.016183125     0.213667497  0.171491037  0.211069597



 old parameters found on file WAVECAR:
  energy-cutoff  :      400.00
  volume of cell :      136.90
      direct lattice vectors                 reciprocal lattice vectors
     4.954896765  0.000006145 -0.054209063     0.202564305  0.000000100  0.067981628
     0.000007066  5.831208532 -0.000029637    -0.000000203  0.171491037  0.000000877
    -1.595976453 -0.000026217  4.755518090     0.002309069  0.000001070  0.211056966

  length of vectors


 k-points in units of 2pi/SCALE and weight: Gamma-point only                        
   0.02560912  0.04287291  0.03488004       0.062
   0.07625020  0.04287293  0.05187545       0.062
  -0.07567303  0.04287286  0.00088923       0.062
  -0.02503196  0.04287288  0.01788464       0.062
   0.02560922 -0.04287261  0.03487960       0.062
   0.07625030 -0.04287259  0.05187501       0.062
  -0.07567293 -0.04287266  0.00088879       0.062
  -0.02503185 -0.04287264  0.01788420       0.062
   0.02618639  0.04287317  0.08764429       0.062
   0.07682746  0.04287320  0.10463969       0.062
  -0.07509576  0.04287312  0.05365347       0.062
  -0.02445469  0.04287315  0.07064888       0.062
   0.02618649 -0.04287235  0.08764385       0.062
   0.07682757 -0.04287232  0.10463925       0.062
  -0.07509566 -0.04287240  0.05365303       0.062
  -0.02445459 -0.04287237  0.07064844       0.062

 k-points in reciprocal lattice and weights: Gamma-point only                        
   0.12500000  0.25000000  0.12500000       0.062
   0.37500000  0.25000000  0.12500000       0.062
  -0.37500000  0.25000000  0.12500000       0.062
  -0.12500000  0.25000000  0.12500000       0.062
   0.12500000 -0.25000000  0.12500000       0.062
   0.37500000 -0.25000000  0.12500000       0.062
  -0.37500000 -0.25000000  0.12500000       0.062
  -0.12500000 -0.25000000  0.12500000       0.062
   0.12500000  0.25000000  0.37500000       0.062
   0.37500000  0.25000000  0.37500000       0.062
  -0.37500000  0.25000000  0.37500000       0.062
  -0.12500000  0.25000000  0.37500000       0.062
   0.12500000 -0.25000000  0.37500000       0.062
   0.37500000 -0.25000000  0.37500000       0.062
  -0.37500000 -0.25000000  0.37500000       0.062
  -0.12500000 -0.25000000  0.37500000       0.062

 position of ions in fractional coordinates (direct lattice) 
   0.75000251  0.36958397  0.00000508
   0.75000031  0.87361117  0.00000286
   0.25000150  0.12637949  0.00000408
   0.25000012  0.63041103  0.00000265
   0.25000159  0.37874318  0.50000570
   0.25000153  0.87873113  0.50000657
   0.75000064  0.12125223  0.50000124
   0.74999984  0.62130135  0.50000249
   0.02399247  0.14809557  0.26639042
   0.99755879  0.61002498  0.28200953
   0.49759276  0.38995215  0.28202130
   0.52397721  0.85192966  0.26640429
   0.47600215  0.14807959  0.73355950
   0.50244221  0.61002613  0.71799899
   0.00240576  0.38995009  0.71798501
   0.97602059  0.85192843  0.73360029

 position of ions in cartesian coordinates  (Angst):
   3.71617952  2.15512579 -0.04064371
   3.71617572  5.09421353 -0.04066911
   1.23872601  0.73694668 -0.01353668
   1.23872503  3.67605973 -0.01355836
   0.44073744  2.20851887  2.36422257
   0.44073925  5.12405291  2.36421191
   2.91818638  0.70703854  2.33710453
   2.91818395  3.62292922  2.33709568
  -0.30627159  0.86356930  1.26551945
   4.49272458  3.55718158  1.28700660
   2.01542417  2.27388797  1.31417178
   2.17108405  4.96777575  1.23846084
   1.18779887  0.86346666  3.46264747
   1.34364412  3.55717386  3.38720217
  -1.13396410  2.27386147  3.41424876
   3.66527852  4.96775912  3.43571504



--------------------------------------------------------------------------------------------------------


 k-point  1 :   0.1250 0.2500 0.1250  plane waves:    2477
 k-point  2 :   0.3750 0.2500 0.1250  plane waves:    2487
 k-point  3 :  -0.3750 0.2500 0.1250  plane waves:    2487
 k-point  4 :  -0.1250 0.2500 0.1250  plane waves:    2481
 k-point  5 :   0.1250-0.2500 0.1250  plane waves:    2477
 k-point  6 :   0.3750-0.2500 0.1250  plane waves:    2487
 k-point  7 :  -0.3750-0.2500 0.1250  plane waves:    2487
 k-point  8 :  -0.1250-0.2500 0.1250  plane waves:    2481
 k-point  9 :   0.1250 0.2500 0.3750  plane waves:    2483
 k-point 10 :   0.3750 0.2500 0.3750  plane waves:    2497
 k-point 11 :  -0.3750 0.2500 0.3750  plane waves:    2500
 k-point 12 :  -0.1250 0.2500 0.3750  plane waves:    2491
 k-point 13 :   0.1250-0.2500 0.3750  plane waves:    2483
 k-point 14 :   0.3750-0.2500 0.3750  plane waves:    2497
 k-point 15 :  -0.3750-0.2500 0.3750  plane waves:    2500
 k-point 16 :  -0.1250-0.2500 0.3750  plane waves:    2491

 maximum and minimum number of plane-waves per node :       261      229

 maximum number of plane-waves:      2500
 maximum index in each direction: 
   IXMAX=    8   IYMAX=    9   IZMAX=    8
   IXMIN=   -8   IYMIN=   -9   IZMIN=   -8

 NGX is ok and might be reduce to  34
 NGY is ok and might be reduce to  38
 NGZ is ok and might be reduce to  34

 real space projection operators:
  total allocation   :     120454.39 KBytes
  max/ min on nodes  :      12091.33      12004.23


 parallel 3D FFT for wavefunctions:
    minimum data exchange during FFTs selected (reduces bandwidth)
 parallel 3D FFT for charge:
    minimum data exchange during FFTs selected (reduces bandwidth)


 total amount of memory used by VASP on root node   197783. kBytes
========================================================================

   base      :      30000. kBytes
   nonlr-proj:      49636. kBytes
   fftplans  :      28230. kBytes
   grid      :      75110. kBytes
   one-center:         62. kBytes
   wavefun   :      14745. kBytes

     INWAV:  cpu time    2.75: real time    2.76
 initial charge density was supplied:
 number of electron      92.0000002 magnetization       4.0048103
 keeping initial charge density in first step


--------------------------------------------------------------------------------------------------------


 Maximum index for non-local projection operator        12488
 Maximum index for augmentation-charges        20250 (set IRDMAX)


--------------------------------------------------------------------------------------------------------


 First call to EWALD:  gamma=   0.344
 Maximum number of real-space cells 3x 2x 3
 Maximum number of reciprocal cells 3x 3x 3

 FEWALD executed in parallel
    FEWALD:  cpu time    0.00: real time    0.00


----------------------------------------- Iteration    1(   1)  ---------------------------------------


    POTLOK:  cpu time    1.75: real time    1.76
    SETDIJ:  cpu time    0.23: real time    0.23
     EDDAV:  cpu time  174.64: real time  175.48
       DOS:  cpu time    0.01: real time    0.01
    --------------------------------------------
      LOOP:  cpu time  176.63: real time  177.50

 eigenvalue-minimisations  : 13056
 total energy-change (2. order) :-0.8998178E+02  (-0.4727778E-02)
 number of electron      92.0000002 magnetization       4.0048103
 augmentation part       92.0000002 magnetization       4.0048103

 Free energy of the ion-electron system (eV)
  ---------------------------------------------------
  alpha Z        PSCENC =       402.54441122
  Ewald energy   TEWEN  =     -5500.55924092
  -Hartree energ DENC   =     -2642.50039527
  -exchange      EXHF   =         0.00000000
  -V(xc)+E(xc)   XCENC  =       335.98627445
  PAW double counting   =      5975.07398980    -6247.74680572
  entropy T*S    EENTRO =        -0.00210779
  eigenvalues    EBANDS =      -203.65358950
  atomic energy  EATOM  =      7790.87568518
  ---------------------------------------------------
  free energy    TOTEN  =       -89.98177856 eV

  energy without entropy =      -89.97967076  energy(sigma->0) =      -89.98072466


--------------------------------------------------------------------------------------------------------




----------------------------------------- Iteration    1(   2)  ---------------------------------------


    EDDIAG:  cpu time   20.51: real time   20.62
  RMM-DIIS:  cpu time  235.22: real time  236.76
    ORTHCH:  cpu time    0.53: real time    0.54
       DOS:  cpu time    0.01: real time    0.01
    --------------------------------------------
      LOOP:  cpu time  256.27: real time  257.93

 eigenvalue-minimisations  : 20775
 total energy-change (2. order) :-0.3223218E-02  (-0.3223217E-02)
 number of electron      92.0000002 magnetization       4.0048103
 augmentation part       92.0000002 magnetization       4.0048103

 Free energy of the ion-electron system (eV)
  ---------------------------------------------------
  alpha Z        PSCENC =       402.54441122
  Ewald energy   TEWEN  =     -5500.55924092
  -Hartree energ DENC   =     -2642.50039527
  -exchange      EXHF   =         0.00000000
  -V(xc)+E(xc)   XCENC  =       335.98627445
  PAW double counting   =      5975.07398980    -6247.74680572
  entropy T*S    EENTRO =        -0.00210341
  eigenvalues    EBANDS =      -203.65681710
  atomic energy  EATOM  =      7790.87568518
  ---------------------------------------------------
  free energy    TOTEN  =       -89.98500177 eV

  energy without entropy =      -89.98289836  energy(sigma->0) =      -89.98395007


--------------------------------------------------------------------------------------------------------




----------------------------------------- Iteration    1(   3)  ---------------------------------------


    EDDIAG:  cpu time   21.56: real time   21.77
  RMM-DIIS:  cpu time  216.56: real time  217.54
    ORTHCH:  cpu time    0.54: real time    0.54
       DOS:  cpu time    0.01: real time    0.01
    --------------------------------------------
      LOOP:  cpu time  238.68: real time  239.87

 eigenvalue-minimisations  : 19037
 total energy-change (2. order) :-0.3995036E-05  (-0.8139644E-05)
 number of electron      92.0000002 magnetization       4.0048103
 augmentation part       92.0000002 magnetization       4.0048103

 Free energy of the ion-electron system (eV)
  ---------------------------------------------------
  alpha Z        PSCENC =       402.54441122
  Ewald energy   TEWEN  =     -5500.55924092
  -Hartree energ DENC   =     -2642.50039527
  -exchange      EXHF   =         0.00000000
  -V(xc)+E(xc)   XCENC  =       335.98627445
  PAW double counting   =      5975.07398980    -6247.74680572
  entropy T*S    EENTRO =        -0.00210349
  eigenvalues    EBANDS =      -203.65682102
  atomic energy  EATOM  =      7790.87568518
  ---------------------------------------------------
  free energy    TOTEN  =       -89.98500577 eV

  energy without entropy =      -89.98290228  energy(sigma->0) =      -89.98395402


--------------------------------------------------------------------------------------------------------




 average (electrostatic) potential at core
  the test charge radii are     0.9748  0.9791  0.7215
  (the norm of the test charge is              1.0000)
       1 -24.8237       2 -25.1627       3 -25.1625       4 -24.8245       5 -45.0792
       6 -43.6402       7 -43.6402       8 -45.0792       9 -71.4897      10 -71.9458
      11 -71.9456      12 -71.4904      13 -71.4903      14 -71.9458      15 -71.9456
      16 -71.4904



 E-fermi :   3.8940     XC(G=0): -11.3468     alpha+bet :-12.4493


 spin component 1

 k-point     1 :       0.1250    0.2500    0.1250
  band No.  band energies     occupation 
      1     -15.8386      1.00000
      2     -14.8494      1.00000
      3     -14.6478      1.00000
      4     -14.4699      1.00000
      5     -14.3371      1.00000
      6     -14.2129      1.00000
      7     -14.1481      1.00000
      8     -14.1012      1.00000
      9      -3.0138      1.00000
     10      -2.7294      1.00000
     11      -2.4875      1.00000
     12      -2.3734      1.00000
     13      -2.1708      1.00000
     14      -2.1473      1.00000
     15      -1.9849      1.00000
     16      -1.7613      1.00000
     17      -1.5642      1.00000
     18      -1.5061      1.00000
     19      -1.3863      1.00000
     20      -1.1315      1.00000
     21      -0.9753      1.00000
     22      -0.7019      1.00000
     23      -0.5223      1.00000
     24      -0.4328      1.00000
     25      -0.2708      1.00000
     26      -0.2119      1.00000
     27      -0.0906      1.00000
     28       0.4613      1.00000
     29       0.6053      1.00000
     30       0.7595      1.00000
     31       0.8614      1.00000
     32       1.3358      1.00000
     33       1.4424      1.00000
     34       1.4693      1.00000
     35       1.5741      1.00000
     36       1.6540      1.00000
     37       1.7521      1.00000
     38       1.8849      1.00000
     39       1.9686      1.00000
     40       2.0342      1.00000
     41       2.1964      1.00000
     42       2.2543      1.00000
     43       2.3717      1.00000
     44       2.5456      1.00000
     45       3.5409      1.00000
     46       3.5504      1.00000
     47       3.6179      0.99995
     48       3.7454      0.98223
     49       4.1819      0.00002
     50       4.3845      0.00000
     51       4.4119      0.00000
     52       4.6192      0.00000
     53       9.3408      0.00000
     54      11.3727      0.00000
     55      11.5410      0.00000
     56      11.8195      0.00000
     57      13.2782      0.00000
     58      14.0842      0.00000
     59      14.1242      0.00000
     60      14.6589      0.00000
     61      14.9385      0.00000
     62      15.3660      0.00000
     63      15.4803      0.00000
     64      15.8781      0.00000
     65      16.0214      0.00000
     66      16.1154      0.00000
     67      16.3782      0.00000
     68      16.8071      0.00000
     69      17.2407      0.00000
     70      17.2747      0.00000
     71      18.1631      0.00000
     72      18.4686      0.00000
     73      18.6265      0.00000
     74      19.0141      0.00000
     75      19.2515      0.00000
     76      19.5716      0.00000
     77      19.6276      0.00000
     78      19.7044      0.00000
     79      20.2031      0.00000
     80      20.6368      0.00000
     81      20.9003      0.00000
     82      20.9409      0.00000
     83      22.0804      0.00000
     84      22.6337      0.00000
     85      22.7036      0.00000
     86      23.2653      0.00000
     87      24.0726      0.00000
     88      26.3778      0.00000
     89      27.0750      0.00000
     90      27.3417      0.00000
     91      27.5239      0.00000
     92      27.6062      0.00000
     93      27.7992      0.00000
     94      28.0329      0.00000
     95      28.2296      0.00000
     96      28.7299      0.00000
     97      28.9508      0.00000
     98      28.9278      0.00000
     99      28.9903      0.00000
    100      28.9941      0.00000
    101      29.2684      0.00000
    102      29.4472      0.00000
    103      30.9131      0.00000
    104      31.0282      0.00000
    105      31.2023      0.00000
    106      32.8300      0.00000
    107      33.5850      0.00000
    108      33.5099      0.00000
    109      33.6770      0.00000
    110      34.3352      0.00000
    111      34.3910      0.00000
    112      34.7308      0.00000
    113      35.1896      0.00000
    114      35.2889      0.00000
    115      35.6517      0.00000
    116      35.5839      0.00000
    117      36.0401      0.00000
    118      36.3262      0.00000
    119      36.5459      0.00000
    120      36.5332      0.00000
    121      37.2222      0.00000
    122      37.6835      0.00000
    123      37.7335      0.00000
    124      37.6992      0.00000
    125      38.8201      0.00000
    126      39.0746      0.00000
    127      39.4219      0.00000
    128      39.6255      0.00000
    129      39.6056      0.00000
    130      39.9457      0.00000
    131      40.4562      0.00000
    132      40.6699      0.00000
    133      41.1118      0.00000
    134      41.1343      0.00000
    135      41.7662      0.00000
    136      42.1676      0.00000
    137      43.0836      0.00000
    138      42.9120      0.00000
    139      43.4436      0.00000
    140      43.8784      0.00000
    141      43.9922      0.00000
    142      44.3726      0.00000
    143      44.6344      0.00000
    144      45.3608      0.00000
    145      45.5754      0.00000
    146      45.4103      0.00000
    147      46.4252      0.00000
    148      46.2392      0.00000
    149      46.7910      0.00000
    150      47.9824      0.00000
    151      47.7298      0.00000
    152      47.6858      0.00000
    153      48.4055      0.00000
    154      48.4821      0.00000
    155      48.8728      0.00000
    156      49.2434      0.00000
    157      49.7157      0.00000
    158      50.1247      0.00000
    159      50.3144      0.00000
    160      50.5816      0.00000
    161      50.1620      0.00000
    162      50.5483      0.00000
    163      50.8516      0.00000
    164      51.4176      0.00000
    165      51.5905      0.00000
    166      52.2839      0.00000
    167      52.7037      0.00000
    168      52.4544      0.00000
    169      53.6384      0.00000
    170      54.1932      0.00000
    171      54.4710      0.00000
    172      54.6700      0.00000
    173      55.1057      0.00000
    174      55.7471      0.00000
    175      55.4828      0.00000
    176      55.6692      0.00000
    177      56.5753      0.00000
    178      57.3693      0.00000
    179      57.4863      0.00000
    180      56.9869      0.00000
    181      58.0609      0.00000
    182      58.3620      0.00000
    183      59.0660      0.00000
    184      59.3200      0.00000
    185      59.8610      0.00000
    186      59.7160      0.00000
    187      59.6800      0.00000
    188      60.4524      0.00000
    189      60.5301      0.00000
    190      62.2946      0.00000
    191      62.5199      0.00000
    192      62.1297      0.00000
    193      62.5962      0.00000
    194      62.8880      0.00000
    195      63.4423      0.00000
    196      63.9448      0.00000
    197      65.7824      0.00000
    198      65.9784      0.00000
    199      66.7032      0.00000
    200      68.7582      0.00000

 k-point     2 :       0.3750    0.2500    0.1250
  band No.  band energies     occupation 
      1     -15.5104      1.00000
      2     -15.1032      1.00000
      3     -14.6136      1.00000
      4     -14.4982      1.00000
      5     -14.3627      1.00000
      6     -14.2999      1.00000
      7     -14.1962      1.00000
      8     -14.1060      1.00000
      9      -2.8821      1.00000
     10      -2.8245      1.00000
     11      -2.4309      1.00000
     12      -2.2344      1.00000
     13      -2.0977      1.00000
     14      -2.0814      1.00000
     15      -1.9852      1.00000
     16      -1.7505      1.00000
     17      -1.5353      1.00000
     18      -1.5253      1.00000
     19      -1.2520      1.00000
     20      -1.0993      1.00000
     21      -1.0171      1.00000
     22      -0.8728      1.00000
     23      -0.6187      1.00000
     24      -0.4072      1.00000
     25      -0.0808      1.00000
     26      -0.0693      1.00000
     27       0.1632      1.00000
     28       0.2222      1.00000
     29       0.4637      1.00000
     30       0.5694      1.00000
     31       0.8473      1.00000
     32       1.3340      1.00000
     33       1.3678      1.00000
     34       1.4024      1.00000
     35       1.5512      1.00000
     36       1.5895      1.00000
     37       1.7888      1.00000
     38       1.8437      1.00000
     39       2.0109      1.00000
     40       2.0646      1.00000
     41       2.1969      1.00000
     42       2.3323      1.00000
     43       2.3980      1.00000
     44       2.5012      1.00000
     45       3.4273      1.00000
     46       3.5191      1.00000
     47       3.5702      1.00000
     48       3.6846      0.99847
     49       4.1421      0.00023
     50       4.2158      0.00000
     51       4.4884      0.00000
     52       4.5134      0.00000
     53      10.3411      0.00000
     54      10.9543      0.00000
     55      12.4914      0.00000
     56      12.6075      0.00000
     57      12.8029      0.00000
     58      13.5316      0.00000
     59      14.2116      0.00000
     60      14.6983      0.00000
     61      14.7597      0.00000
     62      14.9631      0.00000
     63      15.5338      0.00000
     64      15.7727      0.00000
     65      16.0600      0.00000
     66      16.3778      0.00000
     67      16.5207      0.00000
     68      16.7823      0.00000
     69      16.8308      0.00000
     70      17.5275      0.00000
     71      17.5984      0.00000
     72      18.4417      0.00000
     73      18.8807      0.00000
     74      19.0788      0.00000
     75      19.2156      0.00000
     76      19.1342      0.00000
     77      19.7352      0.00000
     78      19.8229      0.00000
     79      19.9709      0.00000
     80      20.5717      0.00000
     81      20.6053      0.00000
     82      20.7501      0.00000
     83      21.3677      0.00000
     84      22.1774      0.00000
     85      22.0489      0.00000
     86      23.3766      0.00000
     87      24.9380      0.00000
     88      24.9481      0.00000
     89      25.6342      0.00000
     90      25.8837      0.00000
     91      26.1287      0.00000
     92      26.5241      0.00000
     93      27.6372      0.00000
     94      28.4681      0.00000
     95      28.6161      0.00000
     96      29.0928      0.00000
     97      29.2602      0.00000
     98      29.3849      0.00000
     99      29.7036      0.00000
    100      30.2003      0.00000
    101      31.0858      0.00000
    102      31.3878      0.00000
    103      32.0928      0.00000
    104      32.1616      0.00000
    105      32.6975      0.00000
    106      33.3339      0.00000
    107      33.3882      0.00000
    108      34.1076      0.00000
    109      34.3591      0.00000
    110      34.5693      0.00000
    111      34.7590      0.00000
    112      34.8807      0.00000
    113      35.4485      0.00000
    114      35.5761      0.00000
    115      35.9686      0.00000
    116      36.4645      0.00000
    117      36.3860      0.00000
    118      37.0964      0.00000
    119      37.4008      0.00000
    120      37.4849      0.00000
    121      37.4450      0.00000
    122      37.9733      0.00000
    123      37.9283      0.00000
    124      38.4923      0.00000
    125      38.4772      0.00000
    126      38.5480      0.00000
    127      39.3417      0.00000
    128      39.3189      0.00000
    129      39.3503      0.00000
    130      39.8762      0.00000
    131      40.2176      0.00000
    132      40.1458      0.00000
    133      40.0334      0.00000
    134      40.1304      0.00000
    135      40.7212      0.00000
    136      41.1971      0.00000
    137      41.6644      0.00000
    138      41.9584      0.00000
    139      42.3229      0.00000
    140      43.0847      0.00000
    141      42.2236      0.00000
    142      43.5497      0.00000
    143      43.7073      0.00000
    144      44.5160      0.00000
    145      45.9694      0.00000
    146      45.5635      0.00000
    147      46.4159      0.00000
    148      46.8036      0.00000
    149      47.0542      0.00000
    150      46.7752      0.00000
    151      47.8817      0.00000
    152      47.9784      0.00000
    153      48.0894      0.00000
    154      48.1212      0.00000
    155      48.5097      0.00000
    156      49.0000      0.00000
    157      49.8179      0.00000
    158      49.3765      0.00000
    159      49.6271      0.00000
    160      50.4891      0.00000
    161      50.6870      0.00000
    162      51.1468      0.00000
    163      51.0892      0.00000
    164      51.4753      0.00000
    165      51.9192      0.00000
    166      52.6484      0.00000
    167      52.3380      0.00000
    168      53.3750      0.00000
    169      53.3927      0.00000
    170      52.6496      0.00000
    171      54.7345      0.00000
    172      54.4867      0.00000
    173      55.0425      0.00000
    174      55.0349      0.00000
    175      55.1334      0.00000
    176      55.8369      0.00000
    177      55.8877      0.00000
    178      56.3901      0.00000
    179      56.7299      0.00000
    180      57.4592      0.00000
    181      57.0652      0.00000
    182      57.8157      0.00000
    183      58.4018      0.00000
    184      58.7500      0.00000
    185      60.0102      0.00000
    186      59.2556      0.00000
    187      59.6970      0.00000
    188      60.5472      0.00000
    189      61.2110      0.00000
    190      61.7523      0.00000
    191      62.2557      0.00000
    192      63.0711      0.00000
    193      62.8413      0.00000
    194      63.7830      0.00000
    195      63.9338      0.00000
    196      63.5843      0.00000
    197      65.3206      0.00000
    198      65.3318      0.00000
    199      66.4593      0.00000
    200      68.3518      0.00000

 k-point     3 :      -0.3750    0.2500    0.1250
  band No.  band energies     occupation 
      1     -15.5761      1.00000
      2     -15.0247      1.00000
      3     -14.6895      1.00000
      4     -14.4201      1.00000
      5     -14.3847      1.00000
      6     -14.2772      1.00000
      7     -14.1971      1.00000
      8     -14.1007      1.00000
      9      -2.9649      1.00000
     10      -2.7683      1.00000
     11      -2.5272      1.00000
     12      -2.3832      1.00000
     13      -2.2388      1.00000
     14      -2.0826      1.00000
     15      -1.9888      1.00000
     16      -1.7860      1.00000
     17      -1.6883      1.00000
     18      -1.4297      1.00000
     19      -1.3078      1.00000
     20      -1.0966      1.00000
     21      -0.9711      1.00000
     22      -0.8825      1.00000
     23      -0.3991      1.00000
     24      -0.3118      1.00000
     25      -0.2188      1.00000
     26      -0.0944      1.00000
     27       0.2009      1.00000
     28       0.4137      1.00000
     29       0.5031      1.00000
     30       0.5945      1.00000
     31       1.0266      1.00000
     32       1.3500      1.00000
     33       1.4485      1.00000
     34       1.5388      1.00000
     35       1.5608      1.00000
     36       1.6123      1.00000
     37       1.7607      1.00000
     38       1.8485      1.00000
     39       1.9763      1.00000
     40       2.0736      1.00000
     41       2.1403      1.00000
     42       2.2407      1.00000
     43       2.3630      1.00000
     44       2.4765      1.00000
     45       3.5610      1.00000
     46       3.5822      0.99999
     47       3.6078      0.99997
     48       3.6790      0.99882
     49       4.0830      0.00376
     50       4.2157      0.00000
     51       4.4666      0.00000
     52       4.5503      0.00000
     53       9.9395      0.00000
     54      11.2066      0.00000
     55      11.7557      0.00000
     56      12.4571      0.00000
     57      12.9996      0.00000
     58      13.1758      0.00000
     59      14.2021      0.00000
     60      14.6537      0.00000
     61      14.7736      0.00000
     62      15.1062      0.00000
     63      15.4424      0.00000
     64      16.0548      0.00000
     65      16.2766      0.00000
     66      16.4730      0.00000
     67      16.3619      0.00000
     68      16.5386      0.00000
     69      17.0483      0.00000
     70      17.4204      0.00000
     71      17.7666      0.00000
     72      18.5210      0.00000
     73      18.6694      0.00000
     74      18.9816      0.00000
     75      19.1729      0.00000
     76      19.5630      0.00000
     77      19.6047      0.00000
     78      19.8670      0.00000
     79      20.1518      0.00000
     80      20.6214      0.00000
     81      20.7133      0.00000
     82      20.8742      0.00000
     83      22.0781      0.00000
     84      22.1719      0.00000
     85      23.2118      0.00000
     86      23.0870      0.00000
     87      23.3622      0.00000
     88      24.8927      0.00000
     89      25.4778      0.00000
     90      25.6094      0.00000
     91      25.5144      0.00000
     92      26.9759      0.00000
     93      27.7299      0.00000
     94      27.7629      0.00000
     95      28.4137      0.00000
     96      28.5416      0.00000
     97      29.4788      0.00000
     98      29.7916      0.00000
     99      30.2060      0.00000
    100      30.5538      0.00000
    101      31.5922      0.00000
    102      31.7280      0.00000
    103      32.2847      0.00000
    104      32.5212      0.00000
    105      32.9903      0.00000
    106      33.1346      0.00000
    107      33.6222      0.00000
    108      33.8137      0.00000
    109      33.9134      0.00000
    110      34.1425      0.00000
    111      34.3244      0.00000
    112      35.0883      0.00000
    113      35.1825      0.00000
    114      35.6052      0.00000
    115      35.9025      0.00000
    116      36.1795      0.00000
    117      35.9630      0.00000
    118      36.5466      0.00000
    119      37.0625      0.00000
    120      37.0312      0.00000
    121      37.2342      0.00000
    122      37.1623      0.00000
    123      37.8497      0.00000
    124      37.9502      0.00000
    125      38.3673      0.00000
    126      38.4804      0.00000
    127      39.4149      0.00000
    128      39.1291      0.00000
    129      39.9718      0.00000
    130      40.4858      0.00000
    131      40.7006      0.00000
    132      40.4464      0.00000
    133      40.8152      0.00000
    134      41.0464      0.00000
    135      41.3698      0.00000
    136      41.9407      0.00000
    137      42.1766      0.00000
    138      42.1602      0.00000
    139      42.7645      0.00000
    140      42.7252      0.00000
    141      43.5186      0.00000
    142      43.3548      0.00000
    143      44.5080      0.00000
    144      44.9668      0.00000
    145      45.0156      0.00000
    146      45.1236      0.00000
    147      46.2030      0.00000
    148      46.1538      0.00000
    149      46.0458      0.00000
    150      47.0272      0.00000
    151      48.0224      0.00000
    152      48.0603      0.00000
    153      47.9439      0.00000
    154      48.5809      0.00000
    155      48.8359      0.00000
    156      48.7504      0.00000
    157      49.3061      0.00000
    158      49.5801      0.00000
    159      50.1635      0.00000
    160      49.9153      0.00000
    161      50.4177      0.00000
    162      51.8036      0.00000
    163      51.7139      0.00000
    164      51.5692      0.00000
    165      51.7253      0.00000
    166      51.9635      0.00000
    167      53.0031      0.00000
    168      53.0486      0.00000
    169      53.0215      0.00000
    170      53.5304      0.00000
    171      53.7550      0.00000
    172      52.4953      0.00000
    173      55.0227      0.00000
    174      54.5738      0.00000
    175      54.6146      0.00000
    176      54.7823      0.00000
    177      56.1523      0.00000
    178      56.3622      0.00000
    179      56.6723      0.00000
    180      56.6909      0.00000
    181      57.4039      0.00000
    182      57.8474      0.00000
    183      58.6679      0.00000
    184      59.1502      0.00000
    185      58.5826      0.00000
    186      59.6809      0.00000
    187      59.9362      0.00000
    188      60.1941      0.00000
    189      60.9964      0.00000
    190      61.2800      0.00000
    191      61.5622      0.00000
    192      63.4755      0.00000
    193      62.7631      0.00000
    194      64.2804      0.00000
    195      64.4291      0.00000
    196      64.1797      0.00000
    197      66.4788      0.00000
    198      66.9508      0.00000
    199      67.4609      0.00000
    200      69.1634      0.00000

 k-point     4 :      -0.1250    0.2500    0.1250
  band No.  band energies     occupation 
      1     -15.8632      1.00000
      2     -14.8691      1.00000
      3     -14.6146      1.00000
      4     -14.4343      1.00000
      5     -14.3703      1.00000
      6     -14.2257      1.00000
      7     -14.1079      1.00000
      8     -14.1002      1.00000
      9      -3.0810      1.00000
     10      -2.8324      1.00000
     11      -2.5862      1.00000
     12      -2.3582      1.00000
     13      -2.1914      1.00000
     14      -2.1541      1.00000
     15      -2.0220      1.00000
     16      -1.8048      1.00000
     17      -1.6610      1.00000
     18      -1.5066      1.00000
     19      -1.3113      1.00000
     20      -1.1861      1.00000
     21      -1.0427      1.00000
     22      -0.8319      1.00000
     23      -0.4194      1.00000
     24      -0.3351      1.00000
     25      -0.2776      1.00000
     26      -0.0733      1.00000
     27       0.0603      1.00000
     28       0.5414      1.00000
     29       0.6867      1.00000
     30       0.7811      1.00000
     31       0.8778      1.00000
     32       1.3623      1.00000
     33       1.4392      1.00000
     34       1.5319      1.00000
     35       1.6192      1.00000
     36       1.7493      1.00000
     37       1.7911      1.00000
     38       1.8845      1.00000
     39       1.9617      1.00000
     40       1.9973      1.00000
     41       2.1756      1.00000
     42       2.2016      1.00000
     43       2.2958      1.00000
     44       2.5565      1.00000
     45       3.5289      1.00000
     46       3.6442      0.99979
     47       3.7135      0.99466
     48       3.7148      0.99438
     49       4.1953      0.00001
     50       4.3002      0.00000
     51       4.5358      0.00000
     52       4.5962      0.00000
     53       9.1238      0.00000
     54      11.2717      0.00000
     55      11.4532      0.00000
     56      11.5494      0.00000
     57      13.0599      0.00000
     58      13.5796      0.00000
     59      14.1709      0.00000
     60      14.7410      0.00000
     61      14.9121      0.00000
     62      15.3671      0.00000
     63      15.4994      0.00000
     64      15.9439      0.00000
     65      16.0666      0.00000
     66      16.2016      0.00000
     67      16.7707      0.00000
     68      16.9401      0.00000
     69      17.0120      0.00000
     70      17.4132      0.00000
     71      18.2474      0.00000
     72      18.4489      0.00000
     73      18.4532      0.00000
     74      19.0306      0.00000
     75      19.4274      0.00000
     76      19.4197      0.00000
     77      19.6424      0.00000
     78      19.9694      0.00000
     79      20.0762      0.00000
     80      20.5264      0.00000
     81      20.7348      0.00000
     82      21.7144      0.00000
     83      21.8969      0.00000
     84      22.8479      0.00000
     85      23.2545      0.00000
     86      24.6008      0.00000
     87      24.9781      0.00000
     88      25.1315      0.00000
     89      25.6482      0.00000
     90      25.9334      0.00000
     91      26.2716      0.00000
     92      26.4739      0.00000
     93      27.2521      0.00000
     94      27.6932      0.00000
     95      28.0627      0.00000
     96      28.7732      0.00000
     97      29.3350      0.00000
     98      29.5286      0.00000
     99      30.1239      0.00000
    100      30.1012      0.00000
    101      30.3481      0.00000
    102      30.3972      0.00000
    103      30.6301      0.00000
    104      31.4366      0.00000
    105      31.6261      0.00000
    106      31.8188      0.00000
    107      32.2563      0.00000
    108      33.2156      0.00000
    109      33.8700      0.00000
    110      34.0537      0.00000
    111      34.5777      0.00000
    112      35.0343      0.00000
    113      35.1621      0.00000
    114      35.1074      0.00000
    115      35.9821      0.00000
    116      36.0641      0.00000
    117      36.0394      0.00000
    118      36.6601      0.00000
    119      36.3057      0.00000
    120      36.9546      0.00000
    121      37.1950      0.00000
    122      37.0909      0.00000
    123      37.3276      0.00000
    124      37.9986      0.00000
    125      38.5163      0.00000
    126      38.9788      0.00000
    127      39.0974      0.00000
    128      38.9205      0.00000
    129      39.0419      0.00000
    130      39.7215      0.00000
    131      39.4706      0.00000
    132      41.0663      0.00000
    133      41.8630      0.00000
    134      41.5040      0.00000
    135      42.5837      0.00000
    136      41.8557      0.00000
    137      42.9973      0.00000
    138      42.9351      0.00000
    139      43.7653      0.00000
    140      43.6334      0.00000
    141      44.1062      0.00000
    142      44.7997      0.00000
    143      44.4620      0.00000
    144      45.8938      0.00000
    145      45.5694      0.00000
    146      46.3176      0.00000
    147      46.5129      0.00000
    148      47.0088      0.00000
    149      47.2482      0.00000
    150      47.5053      0.00000
    151      47.4321      0.00000
    152      48.6476      0.00000
    153      48.5181      0.00000
    154      48.1503      0.00000
    155      48.8102      0.00000
    156      48.5501      0.00000
    157      48.9102      0.00000
    158      48.8383      0.00000
    159      49.9172      0.00000
    160      50.5438      0.00000
    161      49.9593      0.00000
    162      51.2272      0.00000
    163      51.0358      0.00000
    164      51.4712      0.00000
    165      51.8197      0.00000
    166      51.7818      0.00000
    167      52.0040      0.00000
    168      52.7116      0.00000
    169      53.5810      0.00000
    170      54.2076      0.00000
    171      53.7537      0.00000
    172      54.1737      0.00000
    173      54.5485      0.00000
    174      55.1723      0.00000
    175      55.0529      0.00000
    176      56.1454      0.00000
    177      55.9213      0.00000
    178      55.7200      0.00000
    179      56.2719      0.00000
    180      56.5771      0.00000
    181      57.2498      0.00000
    182      57.6755      0.00000
    183      58.1402      0.00000
    184      58.3304      0.00000
    185      58.8555      0.00000
    186      59.3620      0.00000
    187      60.3370      0.00000
    188      61.1375      0.00000
    189      61.0346      0.00000
    190      61.9112      0.00000
    191      62.3163      0.00000
    192      62.4792      0.00000
    193      63.0275      0.00000
    194      63.9352      0.00000
    195      64.5936      0.00000
    196      64.3737      0.00000
    197      65.8449      0.00000
    198      66.2172      0.00000
    199      66.4250      0.00000
    200      67.2307      0.00000

 k-point     5 :       0.1250   -0.2500    0.1250
  band No.  band energies     occupation 
      1     -15.8386      1.00000
      2     -14.8494      1.00000
      3     -14.6478      1.00000
      4     -14.4699      1.00000
      5     -14.3372      1.00000
      6     -14.2129      1.00000
      7     -14.1480      1.00000
      8     -14.1013      1.00000
      9      -3.0138      1.00000
     10      -2.7294      1.00000
     11      -2.4874      1.00000
     12      -2.3734      1.00000
     13      -2.1708      1.00000
     14      -2.1473      1.00000
     15      -1.9850      1.00000
     16      -1.7613      1.00000
     17      -1.5642      1.00000
     18      -1.5061      1.00000
     19      -1.3863      1.00000
     20      -1.1315      1.00000
     21      -0.9752      1.00000
     22      -0.7019      1.00000
     23      -0.5224      1.00000
     24      -0.4326      1.00000
     25      -0.2711      1.00000
     26      -0.2119      1.00000
     27      -0.0905      1.00000
     28       0.4614      1.00000
     29       0.6053      1.00000
     30       0.7595      1.00000
     31       0.8614      1.00000
     32       1.3359      1.00000
     33       1.4425      1.00000
     34       1.4692      1.00000
     35       1.5740      1.00000
     36       1.6541      1.00000
     37       1.7521      1.00000
     38       1.8849      1.00000
     39       1.9686      1.00000
     40       2.0342      1.00000
     41       2.1965      1.00000
     42       2.2543      1.00000
     43       2.3717      1.00000
     44       2.5456      1.00000
     45       3.5411      1.00000
     46       3.5502      1.00000
     47       3.6178      0.99995
     48       3.7454      0.98223
     49       4.1819      0.00002
     50       4.3846      0.00000
     51       4.4119      0.00000
     52       4.6192      0.00000
     53       9.3408      0.00000
     54      11.3728      0.00000
     55      11.5409      0.00000
     56      11.8197      0.00000
     57      13.2780      0.00000
     58      14.0844      0.00000
     59      14.1241      0.00000
     60      14.6588      0.00000
     61      14.9383      0.00000
     62      15.3659      0.00000
     63      15.4802      0.00000
     64      15.8785      0.00000
     65      16.0243      0.00000
     66      16.2604      0.00000
     67      16.5025      0.00000
     68      16.8040      0.00000
     69      17.2397      0.00000
     70      17.3811      0.00000
     71      18.1639      0.00000
     72      18.4681      0.00000
     73      18.6268      0.00000
     74      19.0286      0.00000
     75      19.3141      0.00000
     76      19.5705      0.00000
     77      19.7318      0.00000
     78      19.7690      0.00000
     79      20.1215      0.00000
     80      20.6331      0.00000
     81      20.9141      0.00000
     82      20.8888      0.00000
     83      22.0867      0.00000
     84      22.6117      0.00000
     85      22.6964      0.00000
     86      23.2670      0.00000
     87      24.0797      0.00000
     88      26.4110      0.00000
     89      27.1729      0.00000
     90      27.3968      0.00000
     91      27.5090      0.00000
     92      27.7996      0.00000
     93      27.7707      0.00000
     94      27.7222      0.00000
     95      28.2643      0.00000
     96      28.6913      0.00000
     97      28.7823      0.00000
     98      28.9072      0.00000
     99      28.9856      0.00000
    100      28.9844      0.00000
    101      29.2462      0.00000
    102      29.8199      0.00000
    103      30.8185      0.00000
    104      30.8953      0.00000
    105      31.2365      0.00000
    106      32.7517      0.00000
    107      33.4256      0.00000
    108      33.6673      0.00000
    109      33.5284      0.00000
    110      34.2594      0.00000
    111      34.6163      0.00000
    112      34.8705      0.00000
    113      34.7395      0.00000
    114      35.2180      0.00000
    115      35.6202      0.00000
    116      36.0078      0.00000
    117      35.9093      0.00000
    118      36.4598      0.00000
    119      36.4868      0.00000
    120      36.0938      0.00000
    121      37.6833      0.00000
    122      37.7743      0.00000
    123      37.9680      0.00000
    124      37.7975      0.00000
    125      38.5335      0.00000
    126      39.1680      0.00000
    127      39.4668      0.00000
    128      39.4817      0.00000
    129      39.6702      0.00000
    130      39.6241      0.00000
    131      40.0959      0.00000
    132      40.6515      0.00000
    133      41.2922      0.00000
    134      41.4478      0.00000
    135      42.2995      0.00000
    136      42.6758      0.00000
    137      42.6320      0.00000
    138      42.8199      0.00000
    139      43.2401      0.00000
    140      43.0685      0.00000
    141      43.8250      0.00000
    142      43.2635      0.00000
    143      44.1167      0.00000
    144      45.5535      0.00000
    145      46.1177      0.00000
    146      46.1725      0.00000
    147      46.7430      0.00000
    148      46.9247      0.00000
    149      47.2588      0.00000
    150      47.4001      0.00000
    151      48.1238      0.00000
    152      47.7780      0.00000
    153      48.8115      0.00000
    154      48.7277      0.00000
    155      48.9789      0.00000
    156      49.1893      0.00000
    157      49.8388      0.00000
    158      50.1253      0.00000
    159      49.9183      0.00000
    160      50.1963      0.00000
    161      50.6375      0.00000
    162      50.8853      0.00000
    163      51.3366      0.00000
    164      51.6052      0.00000
    165      51.9661      0.00000
    166      52.1825      0.00000
    167      52.6393      0.00000
    168      53.4382      0.00000
    169      53.3262      0.00000
    170      53.7125      0.00000
    171      54.3142      0.00000
    172      54.3598      0.00000
    173      54.7276      0.00000
    174      54.5621      0.00000
    175      55.4472      0.00000
    176      55.6727      0.00000
    177      55.0957      0.00000
    178      56.2155      0.00000
    179      56.8399      0.00000
    180      58.0892      0.00000
    181      57.9096      0.00000
    182      58.6417      0.00000
    183      58.2247      0.00000
    184      59.3721      0.00000
    185      59.2790      0.00000
    186      59.7586      0.00000
    187      60.5056      0.00000
    188      60.6403      0.00000
    189      61.3855      0.00000
    190      61.7424      0.00000
    191      61.5072      0.00000
    192      63.1205      0.00000
    193      63.4243      0.00000
    194      64.3375      0.00000
    195      63.3674      0.00000
    196      65.1717      0.00000
    197      65.3749      0.00000
    198      66.3827      0.00000
    199      66.7719      0.00000
    200      69.3615      0.00000

 k-point     6 :       0.3750   -0.2500    0.1250
  band No.  band energies     occupation 
      1     -15.5104      1.00000
      2     -15.1033      1.00000
      3     -14.6136      1.00000
      4     -14.4982      1.00000
      5     -14.3628      1.00000
      6     -14.2998      1.00000
      7     -14.1961      1.00000
      8     -14.1061      1.00000
      9      -2.8820      1.00000
     10      -2.8245      1.00000
     11      -2.4309      1.00000
     12      -2.2343      1.00000
     13      -2.0977      1.00000
     14      -2.0815      1.00000
     15      -1.9851      1.00000
     16      -1.7505      1.00000
     17      -1.5353      1.00000
     18      -1.5253      1.00000
     19      -1.2518      1.00000
     20      -1.0993      1.00000
     21      -1.0172      1.00000
     22      -0.8726      1.00000
     23      -0.6190      1.00000
     24      -0.4071      1.00000
     25      -0.0809      1.00000
     26      -0.0692      1.00000
     27       0.1633      1.00000
     28       0.2223      1.00000
     29       0.4636      1.00000
     30       0.5693      1.00000
     31       0.8472      1.00000
     32       1.3341      1.00000
     33       1.3678      1.00000
     34       1.4024      1.00000
     35       1.5512      1.00000
     36       1.5896      1.00000
     37       1.7888      1.00000
     38       1.8437      1.00000
     39       2.0110      1.00000
     40       2.0646      1.00000
     41       2.1970      1.00000
     42       2.3322      1.00000
     43       2.3980      1.00000
     44       2.5012      1.00000
     45       3.4274      1.00000
     46       3.5191      1.00000
     47       3.5702      1.00000
     48       3.6846      0.99847
     49       4.1421      0.00023
     50       4.2158      0.00000
     51       4.4884      0.00000
     52       4.5134      0.00000
     53      10.3410      0.00000
     54      10.9544      0.00000
     55      12.4915      0.00000
     56      12.6077      0.00000
     57      12.8027      0.00000
     58      13.5317      0.00000
     59      14.2116      0.00000
     60      14.6979      0.00000
     61      14.7599      0.00000
     62      14.9630      0.00000
     63      15.5339      0.00000
     64      15.7725      0.00000
     65      16.1903      0.00000
     66      16.3728      0.00000
     67      16.5259      0.00000
     68      16.7708      0.00000
     69      16.7897      0.00000
     70      17.5287      0.00000
     71      17.5725      0.00000
     72      18.4484      0.00000
     73      18.8790      0.00000
     74      19.1366      0.00000
     75      19.1798      0.00000
     76      19.2770      0.00000
     77      19.7330      0.00000
     78      19.8228      0.00000
     79      19.9666      0.00000
     80      20.5105      0.00000
     81      20.5240      0.00000
     82      20.8587      0.00000
     83      21.3393      0.00000
     84      22.1354      0.00000
     85      22.2824      0.00000
     86      23.3909      0.00000
     87      24.7950      0.00000
     88      25.1025      0.00000
     89      25.5704      0.00000
     90      25.8876      0.00000
     91      26.2842      0.00000
     92      26.4620      0.00000
     93      27.6258      0.00000
     94      28.4400      0.00000
     95      28.7742      0.00000
     96      28.9430      0.00000
     97      29.2273      0.00000
     98      29.4976      0.00000
     99      29.6641      0.00000
    100      30.2821      0.00000
    101      30.9013      0.00000
    102      31.3880      0.00000
    103      32.2409      0.00000
    104      32.1187      0.00000
    105      32.9966      0.00000
    106      32.8983      0.00000
    107      33.7082      0.00000
    108      34.0153      0.00000
    109      34.1240      0.00000
    110      34.3535      0.00000
    111      34.9453      0.00000
    112      35.1330      0.00000
    113      35.4185      0.00000
    114      35.5457      0.00000
    115      36.1465      0.00000
    116      36.0539      0.00000
    117      36.4142      0.00000
    118      36.8393      0.00000
    119      37.3224      0.00000
    120      37.5384      0.00000
    121      37.6089      0.00000
    122      38.2042      0.00000
    123      37.6953      0.00000
    124      38.4878      0.00000
    125      38.3957      0.00000
    126      38.8363      0.00000
    127      39.1205      0.00000
    128      39.2335      0.00000
    129      39.5468      0.00000
    130      39.7491      0.00000
    131      40.0538      0.00000
    132      40.4689      0.00000
    133      40.0098      0.00000
    134      40.5812      0.00000
    135      40.1219      0.00000
    136      41.6009      0.00000
    137      41.5489      0.00000
    138      41.5947      0.00000
    139      41.8496      0.00000
    140      42.8960      0.00000
    141      43.9395      0.00000
    142      43.3531      0.00000
    143      44.3625      0.00000
    144      44.8920      0.00000
    145      45.7694      0.00000
    146      45.5946      0.00000
    147      45.9432      0.00000
    148      46.3011      0.00000
    149      46.1974      0.00000
    150      46.5191      0.00000
    151      47.6546      0.00000
    152      47.3841      0.00000
    153      47.9715      0.00000
    154      48.4161      0.00000
    155      48.8640      0.00000
    156      48.5191      0.00000
    157      48.7998      0.00000
    158      48.8892      0.00000
    159      49.8940      0.00000
    160      50.4703      0.00000
    161      50.1265      0.00000
    162      50.6789      0.00000
    163      51.3028      0.00000
    164      50.8467      0.00000
    165      51.9297      0.00000
    166      51.7571      0.00000
    167      51.6437      0.00000
    168      52.5552      0.00000
    169      53.0019      0.00000
    170      53.0207      0.00000
    171      53.5771      0.00000
    172      54.0506      0.00000
    173      54.4188      0.00000
    174      55.0182      0.00000
    175      55.6436      0.00000
    176      55.7226      0.00000
    177      56.5576      0.00000
    178      56.2141      0.00000
    179      56.7496      0.00000
    180      57.7839      0.00000
    181      56.6620      0.00000
    182      58.1809      0.00000
    183      58.7362      0.00000
    184      58.4973      0.00000
    185      58.7355      0.00000
    186      59.9112      0.00000
    187      60.2658      0.00000
    188      61.8131      0.00000
    189      60.9889      0.00000
    190      61.9646      0.00000
    191      62.6296      0.00000
    192      62.2908      0.00000
    193      63.7101      0.00000
    194      63.1060      0.00000
    195      64.6718      0.00000
    196      64.2509      0.00000
    197      65.6192      0.00000
    198      66.9539      0.00000
    199      67.6539      0.00000
    200      70.2296      0.00000

 k-point     7 :      -0.3750   -0.2500    0.1250
  band No.  band energies     occupation 
      1     -15.5761      1.00000
      2     -15.0246      1.00000
      3     -14.6896      1.00000
      4     -14.4200      1.00000
      5     -14.3847      1.00000
      6     -14.2772      1.00000
      7     -14.1971      1.00000
      8     -14.1007      1.00000
      9      -2.9650      1.00000
     10      -2.7683      1.00000
     11      -2.5272      1.00000
     12      -2.3832      1.00000
     13      -2.2388      1.00000
     14      -2.0825      1.00000
     15      -1.9887      1.00000
     16      -1.7860      1.00000
     17      -1.6883      1.00000
     18      -1.4298      1.00000
     19      -1.3077      1.00000
     20      -1.0965      1.00000
     21      -0.9712      1.00000
     22      -0.8826      1.00000
     23      -0.3990      1.00000
[...]
    168      51.2151      0.00000
    169      51.8917      0.00000
    170      52.4488      0.00000
    171      52.3980      0.00000
    172      52.7369      0.00000
    173      52.9286      0.00000
    174      53.2052      0.00000
    175      53.1460      0.00000
    176      54.5733      0.00000
    177      54.6101      0.00000
    178      55.2919      0.00000
    179      55.4497      0.00000
    180      55.3842      0.00000
    181      55.5076      0.00000
    182      56.5708      0.00000
    183      57.1388      0.00000
    184      57.0504      0.00000
    185      58.2629      0.00000
    186      57.9766      0.00000
    187      58.8763      0.00000
    188      58.5467      0.00000
    189      59.7626      0.00000
    190      60.5984      0.00000
    191      61.6510      0.00000
    192      61.5769      0.00000
    193      61.8869      0.00000
    194      62.8655      0.00000
    195      63.3426      0.00000
    196      64.0941      0.00000
    197      64.3141      0.00000
    198      65.2427      0.00000
    199      65.4845      0.00000
    200      67.3433      0.00000

 k-point    16 :      -0.1250   -0.2500    0.3750
  band No.  band energies     occupation 
      1     -15.6235      1.00000
      2     -14.5740      1.00000
      3     -14.4776      1.00000
      4     -14.4459      1.00000
      5     -14.2369      1.00000
      6     -14.0010      1.00000
      7     -13.9154      1.00000
      8     -13.7926      1.00000
      9      -2.9058      1.00000
     10      -2.5080      1.00000
     11      -2.3273      1.00000
     12      -2.2261      1.00000
     13      -2.1064      1.00000
     14      -2.0391      1.00000
     15      -1.9137      1.00000
     16      -1.6516      1.00000
     17      -1.5080      1.00000
     18      -1.2501      1.00000
     19      -1.0954      1.00000
     20      -0.7362      1.00000
     21      -0.6804      1.00000
     22      -0.3113      1.00000
     23      -0.0457      1.00000
     24       0.0348      1.00000
     25       0.1904      1.00000
     26       0.3674      1.00000
     27       0.5678      1.00000
     28       0.7724      1.00000
     29       0.8717      1.00000
     30       1.0587      1.00000
     31       1.1605      1.00000
     32       1.3952      1.00000
     33       1.5333      1.00000
     34       1.6817      1.00000
     35       1.8371      1.00000
     36       1.9958      1.00000
     37       2.1675      1.00000
     38       2.2827      1.00000
     39       2.8965      1.00000
     40       2.9937      1.00000
     41       3.0447      1.00000
     42       3.2870      1.00000
     43       3.4044      1.00000
     44       3.5910      0.99999
     45       4.1106      0.00109
     46       4.3546      0.00000
     47       4.4515      0.00000
     48       4.5870      0.00000
     49       5.0554      0.00000
     50       5.1670      0.00000
     51       5.1832      0.00000
     52       5.2880      0.00000
     53       9.9712      0.00000
     54      11.4694      0.00000
     55      11.9376      0.00000
     56      12.3892      0.00000
     57      13.0998      0.00000
     58      13.4079      0.00000
     59      14.0841      0.00000
     60      14.5327      0.00000
     61      15.1593      0.00000
     62      15.4289      0.00000
     63      15.9098      0.00000
     64      16.0675      0.00000
     65      16.1263      0.00000
     66      16.3556      0.00000
     67      16.7582      0.00000
     68      17.1627      0.00000
     69      17.1908      0.00000
     70      17.4839      0.00000
     71      18.0269      0.00000
     72      18.5388      0.00000
     73      18.7507      0.00000
     74      19.2102      0.00000
     75      19.3023      0.00000
     76      19.4733      0.00000
     77      19.8013      0.00000
     78      20.0725      0.00000
     79      20.2212      0.00000
     80      20.6483      0.00000
     81      20.6802      0.00000
     82      21.1031      0.00000
     83      21.3729      0.00000
     84      22.6091      0.00000
     85      23.2301      0.00000
     86      23.6751      0.00000
     87      23.6220      0.00000
     88      24.9968      0.00000
     89      25.3138      0.00000
     90      25.7750      0.00000
     91      26.6157      0.00000
     92      27.1809      0.00000
     93      27.4490      0.00000
     94      28.0628      0.00000
     95      28.2588      0.00000
     96      28.4392      0.00000
     97      29.8409      0.00000
     98      30.0707      0.00000
     99      30.3741      0.00000
    100      30.8412      0.00000
    101      31.7350      0.00000
    102      31.9568      0.00000
    103      32.0361      0.00000
    104      32.2649      0.00000
    105      32.9802      0.00000
    106      33.2563      0.00000
    107      33.3490      0.00000
    108      33.9104      0.00000
    109      34.0127      0.00000
    110      34.4747      0.00000
    111      35.0027      0.00000
    112      35.0258      0.00000
    113      35.0152      0.00000
    114      35.3876      0.00000
    115      35.7557      0.00000
    116      36.0010      0.00000
    117      36.2140      0.00000
    118      36.5969      0.00000
    119      36.8212      0.00000
    120      36.9395      0.00000
    121      37.0460      0.00000
    122      37.4331      0.00000
    123      37.5146      0.00000
    124      37.7837      0.00000
    125      38.4948      0.00000
    126      38.4255      0.00000
    127      39.5577      0.00000
    128      39.5460      0.00000
    129      39.4887      0.00000
    130      40.1939      0.00000
    131      39.9281      0.00000
    132      40.0042      0.00000
    133      40.7739      0.00000
    134      41.2596      0.00000
    135      41.3556      0.00000
    136      41.8684      0.00000
    137      41.9486      0.00000
    138      42.0853      0.00000
    139      42.7955      0.00000
    140      42.8799      0.00000
    141      43.9387      0.00000
    142      44.4026      0.00000
    143      45.0049      0.00000
    144      44.8496      0.00000
    145      45.1450      0.00000
    146      45.2987      0.00000
    147      45.7902      0.00000
    148      45.9218      0.00000
    149      46.1808      0.00000
    150      46.6908      0.00000
    151      46.1441      0.00000
    152      47.2980      0.00000
    153      47.8008      0.00000
    154      48.2532      0.00000
    155      48.0585      0.00000
    156      48.8900      0.00000
    157      48.9983      0.00000
    158      49.5614      0.00000
    159      49.8516      0.00000
    160      50.1980      0.00000
    161      50.5522      0.00000
    162      50.6732      0.00000
    163      50.8742      0.00000
    164      50.9680      0.00000
    165      51.5234      0.00000
    166      51.7616      0.00000
    167      51.7234      0.00000
    168      52.3350      0.00000
    169      52.6611      0.00000
    170      52.2391      0.00000
    171      53.2876      0.00000
    172      53.3022      0.00000
    173      53.0864      0.00000
    174      54.0930      0.00000
    175      53.4757      0.00000
    176      55.3444      0.00000
    177      54.6871      0.00000
    178      55.3797      0.00000
    179      55.0233      0.00000
    180      56.4964      0.00000
    181      56.9224      0.00000
    182      57.4017      0.00000
    183      57.2271      0.00000
    184      57.6520      0.00000
    185      58.2874      0.00000
    186      58.9751      0.00000
    187      58.9777      0.00000
    188      59.6572      0.00000
    189      60.1630      0.00000
    190      58.9387      0.00000
    191      60.6886      0.00000
    192      60.8131      0.00000
    193      63.2407      0.00000
    194      63.8909      0.00000
    195      62.8310      0.00000
    196      64.2968      0.00000
    197      65.1206      0.00000
    198      65.9073      0.00000
    199      66.6397      0.00000
    200      68.5605      0.00000


--------------------------------------------------------------------------------------------------------


 soft charge-density along one line, spin component           1
         0         1         2         3         4         5         6         7         8         9
 total charge-density along one line

 soft charge-density along one line, spin component           2
         0         1         2         3         4         5         6         7         8         9
 total charge-density along one line

 pseudopotential strength for first ion, spin component:           1
  1.182  -0.052   0.001  -0.000  -0.000
 -0.052  -0.050  -0.000   0.000   0.000
  0.001  -0.000  -0.303  -0.000  -0.000
 -0.000   0.000  -0.000  -0.304   0.001
 -0.000   0.000  -0.000   0.001  -0.304
 pseudopotential strength for first ion, spin component:           2
  1.181  -0.052   0.001  -0.000  -0.000
 -0.052  -0.050  -0.000   0.000   0.000
  0.001  -0.000  -0.309  -0.000  -0.000
 -0.000   0.000  -0.000  -0.309   0.001
 -0.000   0.000  -0.000   0.001  -0.310
 total augmentation occupancy for first ion, spin component:           1
  1.000   0.000   0.000   0.000   0.000
  0.000   0.000   0.000   0.000   0.000
  0.000   0.000   0.000   0.000   0.000
  0.000   0.000   0.000   0.000   0.000
  0.000   0.000   0.000   0.000   0.000
 total augmentation occupancy for first ion, spin component:           2
  1.000   0.000   0.000   0.000   0.000
  0.000   0.000   0.000   0.000   0.000
  0.000   0.000   0.000   0.000   0.000
  0.000   0.000   0.000   0.000   0.000
  0.000   0.000   0.000   0.000   0.000


------------------------ aborting loop because EDIFF is reached ----------------------------------------





 total charge     

# of ion     s       p       d       tot
----------------------------------------
  1        0.095   0.196   0.000   0.291
  2        0.088   0.177   0.000   0.265
  3        0.088   0.177   0.000   0.265
  4        0.095   0.196   0.000   0.291
  5        0.477   0.746   8.141   9.364
  6        0.363   0.457   8.229   9.049
  7        0.363   0.457   8.229   9.049
  8        0.477   0.746   8.141   9.364
  9        1.588   3.439   0.000   5.028
 10        1.594   3.437   0.000   5.031
 11        1.594   3.437   0.000   5.031
 12        1.588   3.439   0.000   5.028
 13        1.588   3.439   0.000   5.028
 14        1.594   3.437   0.000   5.031
 15        1.594   3.437   0.000   5.031
 16        1.588   3.439   0.000   5.028
------------------------------------------------
tot       14.777  30.654  32.740  78.171



 magnetization (x)

# of ion     s       p       d       tot
----------------------------------------
  1        0.004   0.009   0.000   0.013
  2        0.004   0.005   0.000   0.008
  3        0.004   0.005   0.000   0.008
  4        0.004   0.009   0.000   0.013
  5       -0.002  -0.000   0.015   0.012
  6       -0.002  -0.003   1.448   1.443
  7       -0.002  -0.003   1.448   1.442
  8       -0.002  -0.000   0.015   0.012
  9        0.010   0.145   0.000   0.155
 10        0.006   0.062   0.000   0.068
 11        0.006   0.062   0.000   0.068
 12        0.010   0.145   0.000   0.155
 13        0.010   0.145   0.000   0.155
 14        0.006   0.062   0.000   0.068
 15        0.006   0.062   0.000   0.068
 16        0.010   0.145   0.000   0.155
------------------------------------------------
tot        0.071   0.846   2.925   3.842

    CHARGE:  cpu time    2.94: real time    2.96
    FORLOC:  cpu time    0.18: real time    0.19
    FORNL :  cpu time   83.59: real time   83.96
    FORCOR:  cpu time    1.85: real time    1.86
    FORHAR:  cpu time    0.34: real time    0.34
    OFIELD:  cpu time    0.00: real time    0.00

 VOLUME and BASIS-vectors are now :
 -----------------------------------------------------------------------------
  energy-cutoff  :      400.00
  volume of cell :      136.90
      direct lattice vectors                 reciprocal lattice vectors
     4.954896765  0.000006145 -0.054209063     0.202564305  0.000000100  0.067981628
     0.000007066  5.831208532 -0.000029637    -0.000000203  0.171491037  0.000000877
    -1.595976453 -0.000026217  4.755518090     0.002309069  0.000001070  0.211056966

  length of vectors
     4.955193293  5.831208532  5.016183125     0.213667497  0.171491037  0.211069597


 FORCES acting on ions
    electron-ion (+dipol)            ewald-force                    non-local-force                 convergence-correction
 -----------------------------------------------------------------------------------------------
   0.337E-02 0.284E+01 0.293E-02   -.306E-02 -.310E+01 -.242E-02   -.400E-03 0.212E+00 -.485E-03   0.570E-04 0.619E-01 -.450E-04
   0.499E-03 -.535E+01 -.777E-03   -.534E-03 0.518E+01 0.994E-03   -.403E-04 0.242E+00 -.465E-04   0.586E-04 -.606E-01 -.483E-04
   -.457E-02 0.535E+01 0.327E-02   0.407E-02 -.518E+01 -.289E-02   0.681E-03 -.242E+00 -.531E-03   -.624E-04 0.605E-01 0.199E-04
   0.254E-03 -.283E+01 -.215E-03   -.129E-03 0.309E+01 0.167E-03   -.455E-04 -.213E+00 -.973E-05   -.524E-04 -.618E-01 0.278E-04
   0.144E-01 0.243E+02 -.128E-01   -.155E-01 -.259E+02 0.137E-01   0.196E-02 0.115E+01 0.282E-02   -.124E-02 0.748E+00 -.531E-02
   0.242E-01 -.297E+02 0.111E-01   -.244E-01 0.312E+02 -.880E-02   0.155E-02 -.823E+00 0.329E-02   -.166E-02 -.735E+00 -.619E-02
   -.369E-01 0.297E+02 0.174E-01   0.385E-01 -.312E+02 -.199E-01   0.496E-02 0.814E+00 -.334E-02   -.655E-02 0.738E+00 0.566E-02
   0.166E-02 -.243E+02 0.230E-03   0.149E-02 0.259E+02 -.309E-02   0.320E-02 -.116E+01 -.372E-02   -.672E-02 -.739E+00 0.689E-02
   0.186E+02 0.492E+02 0.287E+03   -.211E+02 -.533E+02 -.298E+03   0.169E+01 0.227E+01 0.112E+02   0.486E+00 0.131E+01 0.494E+00
   -.153E+02 -.409E+02 0.298E+03   0.179E+02 0.449E+02 -.313E+03   -.171E+01 -.247E+01 0.135E+02   -.467E+00 -.113E+01 0.109E+01
   -.153E+02 0.409E+02 0.298E+03   0.179E+02 -.449E+02 -.313E+03   -.172E+01 0.248E+01 0.135E+02   -.470E+00 0.113E+01 0.110E+01
   0.186E+02 -.492E+02 0.287E+03   -.211E+02 0.533E+02 -.298E+03   0.169E+01 -.227E+01 0.112E+02   0.485E+00 -.132E+01 0.495E+00
   -.186E+02 0.492E+02 -.287E+03   0.211E+02 -.533E+02 0.298E+03   -.169E+01 0.227E+01 -.112E+02   -.480E+00 0.131E+01 -.496E+00
   0.153E+02 -.409E+02 -.298E+03   -.179E+02 0.449E+02 0.313E+03   0.171E+01 -.247E+01 -.135E+02   0.472E+00 -.113E+01 -.109E+01
   0.153E+02 0.409E+02 -.298E+03   -.178E+02 -.449E+02 0.313E+03   0.172E+01 0.248E+01 -.135E+02   0.465E+00 0.113E+01 -.109E+01
   -.186E+02 -.492E+02 -.287E+03   0.211E+02 0.533E+02 0.298E+03   -.169E+01 -.228E+01 -.112E+02   -.489E+00 -.132E+01 -.491E+00
 -----------------------------------------------------------------------------------------------
   0.277E-02 -.220E-02 0.137E-02   -.355E-14 -.213E-13 -.568E-13   0.111E-01 -.636E-02 -.386E-02   -.149E-01 0.929E-02 0.258E-02


 POSITION                                       TOTAL-FORCE (eV/Angst)
 -----------------------------------------------------------------------------------
      3.71618      2.15513     -0.04064         0.000033      0.016389     -0.000027
      3.71618      5.09421     -0.04067         0.000049      0.014937      0.000117
      1.23873      0.73695     -0.01354         0.000185     -0.014741     -0.000137
      1.23873      3.67606     -0.01356         0.000093     -0.016796     -0.000035
      0.44074      2.20852      2.36422        -0.000356      0.270987     -0.001515
      0.44074      5.12405      2.36421        -0.000273     -0.063596     -0.000592
      2.91819      0.70704      2.33710         0.000142      0.065730     -0.000131
      2.91818      3.62293      2.33710        -0.000306     -0.278161      0.000304
     -0.30627      0.86357      1.26552        -0.298290     -0.478530      0.161758
      4.49272      3.55718      1.28701         0.332093      0.333422     -0.124180
      2.01542      2.27389      1.31417         0.330851     -0.330377     -0.124190
      2.17108      4.96778      1.23846        -0.297740      0.477959      0.160693
      1.18780      0.86347      3.46265         0.297749     -0.478078     -0.159614
      1.34364      3.55717      3.38720        -0.332154      0.333184      0.124660
     -1.13396      2.27386      3.41425        -0.330345     -0.330396      0.123794
      3.66528      4.96776      3.43572         0.298267      0.478067     -0.160905
 -----------------------------------------------------------------------------------
    total drift:                               -0.001057      0.000724      0.000083


--------------------------------------------------------------------------------------------------------



  FREE ENERGIE OF THE ION-ELECTRON SYSTEM (eV)
  ---------------------------------------------------
  free  energy   TOTEN  =       -89.98500577 eV

  energy  without entropy=      -89.98290228  energy(sigma->0) =      -89.98395402



--------------------------------------------------------------------------------------------------------


    POTLOK:  cpu time    1.88: real time    1.88


--------------------------------------------------------------------------------------------------------


     LOOP+:  cpu time  762.57: real time  766.70
    4ORBIT:  cpu time    0.00: real time    0.00



 total charge     

# of ion     s       p       d       tot
----------------------------------------
  1        0.095   0.196   0.000   0.291
  2        0.088   0.177   0.000   0.265
  3        0.088   0.177   0.000   0.265
  4        0.095   0.196   0.000   0.291
  5        0.477   0.746   8.141   9.364
  6        0.363   0.457   8.229   9.049
  7        0.363   0.457   8.229   9.049
  8        0.477   0.746   8.141   9.364
  9        1.588   3.439   0.000   5.028
 10        1.594   3.437   0.000   5.031
 11        1.594   3.437   0.000   5.031
 12        1.588   3.439   0.000   5.028
 13        1.588   3.439   0.000   5.028
 14        1.594   3.437   0.000   5.031
 15        1.594   3.437   0.000   5.031
 16        1.588   3.439   0.000   5.028
------------------------------------------------
tot       14.777  30.654  32.740  78.171



 magnetization (x)

# of ion     s       p       d       tot
----------------------------------------
  1        0.004   0.009   0.000   0.013
  2        0.004   0.005   0.000   0.008
  3        0.004   0.005   0.000   0.008
  4        0.004   0.009   0.000   0.013
  5       -0.002  -0.000   0.015   0.012
  6       -0.002  -0.003   1.448   1.443
  7       -0.002  -0.003   1.448   1.442
  8       -0.002  -0.000   0.015   0.012
  9        0.010   0.145   0.000   0.155
 10        0.006   0.062   0.000   0.068
 11        0.006   0.062   0.000   0.068
 12        0.010   0.145   0.000   0.155
 13        0.010   0.145   0.000   0.155
 14        0.006   0.062   0.000   0.068
 15        0.006   0.062   0.000   0.068
 16        0.010   0.145   0.000   0.155
------------------------------------------------
tot        0.071   0.846   2.925   3.842


 total amount of memory used by VASP on root node   197783. kBytes
========================================================================

   base      :      30000. kBytes
   nonlr-proj:      49636. kBytes
   fftplans  :      28230. kBytes
   grid      :      75110. kBytes
   one-center:         62. kBytes
   wavefun   :      14745. kBytes

  
  
 General timing and accounting informations for this job:
 ========================================================
  
                  Total CPU time used (sec):      820.465
                            User time (sec):      816.719
                          System time (sec):        3.746
                         Elapsed time (sec):      825.803
  
                   Maximum memory used (kb):      287428.
                   Average memory used (kb):           0.
  
                          Minor page faults:       117428
                          Major page faults:            0
                 Voluntary context switches:          523
