Na -> Ag substituted dehydrated zeolit  
           1
     5.876151    0.000000    0.000000
     0.000000    8.220336    0.000000
     0.000000    0.000000   17.892574
   Li   Ir   O 
  32  16  48
Direct configuration=     1
   0.00000000  0.00000000  0.07968529
   0.50000000  0.00000000  0.42031471
   0.75000000  0.75000000  0.17031471
   0.75000000  0.75000000  0.32968529
   0.00000000  0.00000000  0.24756142
   0.50000000  0.00000000  0.25243858
   0.75000000  0.75000000  0.00243858
   0.75000000  0.75000000  0.49756142
   0.00000000  0.50000000  0.57968529
   0.50000000  0.50000000  0.92031471
   0.75000000  0.25000000  0.67031471
   0.75000000  0.25000000  0.82968529
   0.00000000  0.50000000  0.74756142
   0.50000000  0.50000000  0.75243858
   0.75000000  0.25000000  0.50243858
   0.75000000  0.25000000  0.99756142
   0.50000000  0.00000000  0.57968529
   0.00000000  0.00000000  0.92031471
   0.25000000  0.75000000  0.67031471
   0.25000000  0.75000000  0.82968529
   0.50000000  0.00000000  0.74756142
   0.00000000  0.00000000  0.75243858
   0.25000000  0.75000000  0.50243858
   0.25000000  0.75000000  0.99756142
   0.50000000  0.50000000  0.07968529
   0.00000000  0.50000000  0.42031471
   0.25000000  0.25000000  0.17031471
   0.25000000  0.25000000  0.32968529
   0.50000000  0.50000000  0.24756142
   0.00000000  0.50000000  0.25243858
   0.25000000  0.25000000  0.00243858
   0.25000000  0.25000000  0.49756142
   0.00000000  0.00000000  0.41498552
   0.50000000  0.00000000  0.08501448
   0.75000000  0.25000000  0.33501448
   0.75000000  0.25000000  0.16498552
   0.00000000  0.50000000  0.91498552
   0.50000000  0.50000000  0.58501448
   0.75000000  0.75000000  0.83501448
   0.75000000  0.75000000  0.66498552
   0.50000000  0.00000000  0.91498552
   0.00000000  0.00000000  0.58501448
   0.25000000  0.25000000  0.83501448
   0.25000000  0.25000000  0.66498552
   0.50000000  0.50000000  0.41498552
   0.00000000  0.50000000  0.08501448
   0.25000000  0.75000000  0.33501448
   0.25000000  0.75000000  0.16498552
   0.73042539  0.00000000  0.00000000
   0.26957461  0.00000000  0.00000000
   0.51957461  0.25000000  0.25000000
   0.98042539  0.25000000  0.25000000
   0.50285806  0.24617784  0.08427763
   0.00285806  0.75382216  0.41572237
   0.99714194  0.24617784  0.41572237
   0.49714194  0.75382216  0.08427763
   0.74714194  0.00382216  0.16572237
   0.24714194  0.99617784  0.33427763
   0.75285806  0.00382216  0.33427763
   0.25285806  0.99617784  0.16572237
   0.73042539  0.50000000  0.50000000
   0.26957461  0.50000000  0.50000000
   0.51957461  0.75000000  0.75000000
   0.98042539  0.75000000  0.75000000
   0.50285806  0.74617784  0.58427763
   0.00285806  0.25382216  0.91572237
   0.99714194  0.74617784  0.91572237
   0.49714194  0.25382216  0.58427763
   0.74714194  0.50382216  0.66572237
   0.24714194  0.49617784  0.83427763
   0.75285806  0.50382216  0.83427763
   0.25285806  0.49617784  0.66572237
   0.23042539  0.00000000  0.50000000
   0.76957461  0.00000000  0.50000000
   0.01957461  0.25000000  0.75000000
   0.48042539  0.25000000  0.75000000
   0.00285806  0.24617784  0.58427763
   0.50285806  0.75382216  0.91572237
   0.49714194  0.24617784  0.91572237
   0.99714194  0.75382216  0.58427763
   0.24714194  0.00382216  0.66572237
   0.74714194  0.99617784  0.83427763
   0.25285806  0.00382216  0.83427763
   0.75285806  0.99617784  0.66572237
   0.23042539  0.50000000  0.00000000
   0.76957461  0.50000000  0.00000000
   0.01957461  0.75000000  0.25000000
   0.48042539  0.75000000  0.25000000
   0.00285806  0.74617784  0.08427763
   0.50285806  0.25382216  0.41572237
   0.49714194  0.74617784  0.41572237
   0.99714194  0.25382216  0.08427763
   0.24714194  0.50382216  0.16572237
   0.74714194  0.49617784  0.33427763
   0.25285806  0.50382216  0.33427763
   0.75285806  0.49617784  0.16572237
